28
Atoms. Timestep: 209
C 0.728527 -1.14165 2.66427
C 1.04758 -2.05558 1.73888
C 0.892993 -1.81069 0.34788
N 0.770179 -1.60049 -0.782002
H 0.876269 -1.3337 3.71461
H 0.324239 -0.181361 2.37706
H 1.46171 -3.00509 2.04993
C 3.14669 2.17778 -0.838298
C 2.80207 1.25752 -1.75023
C 2.94413 1.45518 -3.15559
N 3.05702 1.61825 4.14006
H 3.56241 -3.19363 -1.14997
H 3.02 2.00162 0.219069
H 2.39062 0.318046 -1.41623
C -3.14283 -1.0886 0.837087
C -2.81807 -2.00743 1.75896
C -2.95723 -1.7909 3.16158
N -3.06656 -1.6091 -4.13655
H -3.5503 -0.132821 1.13414
H -3.01276 -1.27537 -0.217597
H -2.42267 -2.95822 1.43755
C -0.742293 2.16353 -2.66299
C -1.0429 1.23439 -1.74522
C -0.854295 1.43275 -0.35026
N -0.703398 1.5988 0.783846
H -0.913617 1.98597 -3.71236
H -0.329439 -3.19853 -2.37999
H -1.46807 0.294758 -2.06763
